LAMMPS Description

     6  atoms
     4  bonds
     0  angles
     0  dihedrals
     0  impropers

     2  atom types
     1  bond types

  0 3 xlo xhi
  0 3 ylo yhi
  0 3 zlo zhi

Masses

    1 15.9994
    2 1.008

Atoms # full

1 1 1 -0.84 0.0 0.0 0.0
2 1 2 0.42 0.316 0.66883 0.6312
3 1 2 0.42 -0.0321 0.3424 -0.8963
4 2 1 -0.84 0.0 1.5 0.0
5 2 2 0.42 0.316 2.16883 0.6312
6 2 2 0.42 -0.0321 1.8424 -0.8963

Bonds

1 1 1 2
2 1 1 3
3 1 4 5
4 1 4 6

