ITEM: TIMESTEP
0
ITEM: NUMBER OF ATOMS
375
ITEM: BOX BOUNDS pp pp pp
0.0000000000000000e+00 7.5000000000000000e+00
0.0000000000000000e+00 7.5000000000000000e+00
0.0000000000000000e+00 7.5000000000000000e+00
ITEM: ATOMS id type mol proc q 
1 1 1 0 -0.84 
2 2 1 0 0.42 
4 1 2 0 -0.84 
5 2 2 0 0.42 
7 1 3 0 -0.84 
8 2 3 0 0.42 
16 1 6 0 -0.84 
17 2 6 0 0.42 
19 1 7 0 -0.84 
20 2 7 0 0.42 
22 1 8 0 -0.84 
23 2 8 0 0.42 
31 1 11 0 -0.84 
32 2 11 0 0.42 
34 1 12 0 -0.84 
35 2 12 0 0.42 
37 1 13 0 -0.84 
38 2 13 0 0.42 
76 1 26 0 -0.84 
77 2 26 0 0.42 
79 1 27 0 -0.84 
80 2 27 0 0.42 
81 2 27 0 0.42 
82 1 28 0 -0.84 
83 2 28 0 0.42 
84 2 28 0 0.42 
87 2 29 0 0.42 
91 1 31 0 -0.84 
92 2 31 0 0.42 
94 1 32 0 -0.84 
95 2 32 0 0.42 
96 2 32 0 0.42 
97 1 33 0 -0.84 
98 2 33 0 0.42 
99 2 33 0 0.42 
102 2 34 0 0.42 
106 1 36 0 -0.84 
107 2 36 0 0.42 
109 1 37 0 -0.84 
110 2 37 0 0.42 
111 2 37 0 0.42 
112 1 38 0 -0.84 
113 2 38 0 0.42 
114 2 38 0 0.42 
117 2 39 0 0.42 
151 1 51 0 -0.84 
152 2 51 0 0.42 
154 1 52 0 -0.84 
155 2 52 0 0.42 
156 2 52 0 0.42 
157 1 53 0 -0.84 
158 2 53 0 0.42 
159 2 53 0 0.42 
162 2 54 0 0.42 
166 1 56 0 -0.84 
167 2 56 0 0.42 
169 1 57 0 -0.84 
170 2 57 0 0.42 
171 2 57 0 0.42 
172 1 58 0 -0.84 
173 2 58 0 0.42 
174 2 58 0 0.42 
177 2 59 0 0.42 
181 1 61 0 -0.84 
182 2 61 0 0.42 
184 1 62 0 -0.84 
185 2 62 0 0.42 
186 2 62 0 0.42 
187 1 63 0 -0.84 
188 2 63 0 0.42 
189 2 63 0 0.42 
192 2 64 0 0.42 
6 2 2 0 0.42 
9 2 3 0 0.42 
12 2 4 0 0.42 
21 2 7 0 0.42 
24 2 8 0 0.42 
27 2 9 0 0.42 
36 2 12 0 0.42 
39 2 13 0 0.42 
42 2 14 0 0.42 
226 1 76 0 -0.84 
227 2 76 0 0.42 
229 1 77 0 -0.84 
230 2 77 0 0.42 
231 2 77 0 0.42 
232 1 78 0 -0.84 
233 2 78 0 0.42 
234 2 78 0 0.42 
237 2 79 0 0.42 
241 1 81 0 -0.84 
242 2 81 0 0.42 
244 1 82 0 -0.84 
245 2 82 0 0.42 
246 2 82 0 0.42 
247 1 83 0 -0.84 
248 2 83 0 0.42 
249 2 83 0 0.42 
252 2 84 0 0.42 
256 1 86 0 -0.84 
257 2 86 0 0.42 
259 1 87 0 -0.84 
260 2 87 0 0.42 
261 2 87 0 0.42 
262 1 88 0 -0.84 
263 2 88 0 0.42 
264 2 88 0 0.42 
267 2 89 0 0.42 
301 1 101 0 -0.84 
302 2 101 0 0.42 
304 1 102 0 -0.84 
305 2 102 0 0.42 
306 2 102 0 0.42 
307 1 103 0 -0.84 
308 2 103 0 0.42 
309 2 103 0 0.42 
312 2 104 0 0.42 
316 1 106 0 -0.84 
317 2 106 0 0.42 
319 1 107 0 -0.84 
320 2 107 0 0.42 
321 2 107 0 0.42 
322 1 108 0 -0.84 
323 2 108 0 0.42 
324 2 108 0 0.42 
327 2 109 0 0.42 
331 1 111 0 -0.84 
332 2 111 0 0.42 
334 1 112 0 -0.84 
335 2 112 0 0.42 
336 2 112 0 0.42 
337 1 113 0 -0.84 
338 2 113 0 0.42 
339 2 113 0 0.42 
342 2 114 0 0.42 
46 1 16 0 -0.84 
47 2 16 0 0.42 
49 1 17 0 -0.84 
50 2 17 0 0.42 
52 1 18 0 -0.84 
53 2 18 0 0.42 
61 1 21 0 -0.84 
62 2 21 0 0.42 
64 1 22 0 -0.84 
65 2 22 0 0.42 
67 1 23 0 -0.84 
68 2 23 0 0.42 
121 1 41 0 -0.84 
122 2 41 0 0.42 
124 1 42 0 -0.84 
125 2 42 0 0.42 
126 2 42 0 0.42 
127 1 43 0 -0.84 
128 2 43 0 0.42 
129 2 43 0 0.42 
132 2 44 0 0.42 
136 1 46 0 -0.84 
137 2 46 0 0.42 
139 1 47 0 -0.84 
140 2 47 0 0.42 
141 2 47 0 0.42 
142 1 48 0 -0.84 
143 2 48 0 0.42 
144 2 48 0 0.42 
147 2 49 0 0.42 
196 1 66 0 -0.84 
197 2 66 0 0.42 
199 1 67 0 -0.84 
200 2 67 0 0.42 
201 2 67 0 0.42 
202 1 68 0 -0.84 
203 2 68 0 0.42 
204 2 68 0 0.42 
207 2 69 0 0.42 
211 1 71 0 -0.84 
212 2 71 0 0.42 
214 1 72 0 -0.84 
215 2 72 0 0.42 
216 2 72 0 0.42 
217 1 73 0 -0.84 
218 2 73 0 0.42 
219 2 73 0 0.42 
222 2 74 0 0.42 
51 2 17 0 0.42 
54 2 18 0 0.42 
57 2 19 0 0.42 
66 2 22 0 0.42 
69 2 23 0 0.42 
72 2 24 0 0.42 
271 1 91 0 -0.84 
272 2 91 0 0.42 
274 1 92 0 -0.84 
275 2 92 0 0.42 
276 2 92 0 0.42 
277 1 93 0 -0.84 
278 2 93 0 0.42 
279 2 93 0 0.42 
282 2 94 0 0.42 
286 1 96 0 -0.84 
287 2 96 0 0.42 
289 1 97 0 -0.84 
290 2 97 0 0.42 
291 2 97 0 0.42 
292 1 98 0 -0.84 
293 2 98 0 0.42 
294 2 98 0 0.42 
297 2 99 0 0.42 
346 1 116 0 -0.84 
347 2 116 0 0.42 
349 1 117 0 -0.84 
350 2 117 0 0.42 
351 2 117 0 0.42 
352 1 118 0 -0.84 
353 2 118 0 0.42 
354 2 118 0 0.42 
357 2 119 0 0.42 
361 1 121 0 -0.84 
362 2 121 0 0.42 
364 1 122 0 -0.84 
365 2 122 0 0.42 
366 2 122 0 0.42 
367 1 123 0 -0.84 
368 2 123 0 0.42 
369 2 123 0 0.42 
372 2 124 0 0.42 
10 1 4 0 -0.84 
11 2 4 0 0.42 
13 1 5 0 -0.84 
14 2 5 0 0.42 
25 1 9 0 -0.84 
26 2 9 0 0.42 
28 1 10 0 -0.84 
29 2 10 0 0.42 
40 1 14 0 -0.84 
41 2 14 0 0.42 
43 1 15 0 -0.84 
44 2 15 0 0.42 
78 2 26 0 0.42 
85 1 29 0 -0.84 
86 2 29 0 0.42 
88 1 30 0 -0.84 
89 2 30 0 0.42 
90 2 30 0 0.42 
93 2 31 0 0.42 
100 1 34 0 -0.84 
101 2 34 0 0.42 
103 1 35 0 -0.84 
104 2 35 0 0.42 
105 2 35 0 0.42 
108 2 36 0 0.42 
115 1 39 0 -0.84 
116 2 39 0 0.42 
118 1 40 0 -0.84 
119 2 40 0 0.42 
120 2 40 0 0.42 
153 2 51 0 0.42 
160 1 54 0 -0.84 
161 2 54 0 0.42 
163 1 55 0 -0.84 
164 2 55 0 0.42 
165 2 55 0 0.42 
168 2 56 0 0.42 
175 1 59 0 -0.84 
176 2 59 0 0.42 
178 1 60 0 -0.84 
179 2 60 0 0.42 
180 2 60 0 0.42 
183 2 61 0 0.42 
190 1 64 0 -0.84 
191 2 64 0 0.42 
193 1 65 0 -0.84 
194 2 65 0 0.42 
195 2 65 0 0.42 
3 2 1 0 0.42 
15 2 5 0 0.42 
18 2 6 0 0.42 
30 2 10 0 0.42 
33 2 11 0 0.42 
45 2 15 0 0.42 
228 2 76 0 0.42 
235 1 79 0 -0.84 
236 2 79 0 0.42 
238 1 80 0 -0.84 
239 2 80 0 0.42 
240 2 80 0 0.42 
243 2 81 0 0.42 
250 1 84 0 -0.84 
251 2 84 0 0.42 
253 1 85 0 -0.84 
254 2 85 0 0.42 
255 2 85 0 0.42 
258 2 86 0 0.42 
265 1 89 0 -0.84 
266 2 89 0 0.42 
268 1 90 0 -0.84 
269 2 90 0 0.42 
270 2 90 0 0.42 
303 2 101 0 0.42 
310 1 104 0 -0.84 
311 2 104 0 0.42 
313 1 105 0 -0.84 
314 2 105 0 0.42 
315 2 105 0 0.42 
318 2 106 0 0.42 
325 1 109 0 -0.84 
326 2 109 0 0.42 
328 1 110 0 -0.84 
329 2 110 0 0.42 
330 2 110 0 0.42 
333 2 111 0 0.42 
340 1 114 0 -0.84 
341 2 114 0 0.42 
343 1 115 0 -0.84 
344 2 115 0 0.42 
345 2 115 0 0.42 
55 1 19 0 -0.84 
56 2 19 0 0.42 
58 1 20 0 -0.84 
59 2 20 0 0.42 
70 1 24 0 -0.84 
71 2 24 0 0.42 
73 1 25 0 -0.84 
74 2 25 0 0.42 
123 2 41 0 0.42 
130 1 44 0 -0.84 
131 2 44 0 0.42 
133 1 45 0 -0.84 
134 2 45 0 0.42 
135 2 45 0 0.42 
138 2 46 0 0.42 
145 1 49 0 -0.84 
146 2 49 0 0.42 
148 1 50 0 -0.84 
149 2 50 0 0.42 
150 2 50 0 0.42 
198 2 66 0 0.42 
205 1 69 0 -0.84 
206 2 69 0 0.42 
208 1 70 0 -0.84 
209 2 70 0 0.42 
210 2 70 0 0.42 
213 2 71 0 0.42 
220 1 74 0 -0.84 
221 2 74 0 0.42 
223 1 75 0 -0.84 
224 2 75 0 0.42 
225 2 75 0 0.42 
48 2 16 0 0.42 
60 2 20 0 0.42 
63 2 21 0 0.42 
75 2 25 0 0.42 
273 2 91 0 0.42 
280 1 94 0 -0.84 
281 2 94 0 0.42 
283 1 95 0 -0.84 
284 2 95 0 0.42 
285 2 95 0 0.42 
288 2 96 0 0.42 
295 1 99 0 -0.84 
296 2 99 0 0.42 
298 1 100 0 -0.84 
299 2 100 0 0.42 
300 2 100 0 0.42 
348 2 116 0 0.42 
355 1 119 0 -0.84 
356 2 119 0 0.42 
358 1 120 0 -0.84 
359 2 120 0 0.42 
360 2 120 0 0.42 
363 2 121 0 0.42 
370 1 124 0 -0.84 
371 2 124 0 0.42 
373 1 125 0 -0.84 
374 2 125 0 0.42 
375 2 125 0 0.42 
ITEM: TIMESTEP
10
ITEM: NUMBER OF ATOMS
375
ITEM: BOX BOUNDS pp pp pp
0.0000000000000000e+00 7.5000000000000000e+00
0.0000000000000000e+00 7.5000000000000000e+00
0.0000000000000000e+00 7.5000000000000000e+00
ITEM: ATOMS id type mol proc q 
1 1 1 0 -0.839117 
2 2 1 0 0.417887 
4 1 2 0 -0.842924 
5 2 2 0 0.419809 
7 1 3 0 -0.843463 
8 2 3 0 0.420285 
16 1 6 0 -0.843947 
17 2 6 0 0.420414 
19 1 7 0 -0.845222 
20 2 7 0 0.421354 
22 1 8 0 -0.841903 
23 2 8 0 0.419418 
31 1 11 0 -0.840594 
32 2 11 0 0.418574 
34 1 12 0 -0.843172 
35 2 12 0 0.419677 
37 1 13 0 -0.845391 
38 2 13 0 0.420939 
76 1 26 0 -0.843192 
77 2 26 0 0.419901 
79 1 27 0 -0.844446 
80 2 27 0 0.420294 
81 2 27 0 0.424152 
82 1 28 0 -0.84427 
83 2 28 0 0.42048 
84 2 28 0 0.423791 
87 2 29 0 0.423745 
91 1 31 0 -0.84333 
92 2 31 0 0.419229 
94 1 32 0 -0.842893 
95 2 32 0 0.419828 
96 2 32 0 0.423065 
97 1 33 0 -0.843 
98 2 33 0 0.420233 
99 2 33 0 0.422767 
102 2 34 0 0.421175 
106 1 36 0 -0.84339 
107 2 36 0 0.420073 
109 1 37 0 -0.838756 
110 2 37 0 0.417225 
111 2 37 0 0.421531 
112 1 38 0 -0.842276 
113 2 38 0 0.419526 
114 2 38 0 0.422749 
117 2 39 0 0.423783 
151 1 51 0 -0.838293 
152 2 51 0 0.417533 
154 1 52 0 -0.845817 
155 2 52 0 0.420854 
156 2 52 0 0.424962 
157 1 53 0 -0.843229 
158 2 53 0 0.419947 
159 2 53 0 0.423282 
162 2 54 0 0.422349 
166 1 56 0 -0.84286 
167 2 56 0 0.419752 
169 1 57 0 -0.840509 
170 2 57 0 0.417959 
171 2 57 0 0.42255 
172 1 58 0 -0.841981 
173 2 58 0 0.419016 
174 2 58 0 0.422964 
177 2 59 0 0.421369 
181 1 61 0 -0.840035 
182 2 61 0 0.41829 
184 1 62 0 -0.841921 
185 2 62 0 0.419517 
186 2 62 0 0.422404 
187 1 63 0 -0.842565 
188 2 63 0 0.419642 
189 2 63 0 0.422923 
192 2 64 0 0.423354 
6 2 2 0 0.423114 
9 2 3 0 0.423177 
12 2 4 0 0.424743 
21 2 7 0 0.423867 
24 2 8 0 0.422485 
27 2 9 0 0.422988 
36 2 12 0 0.423495 
39 2 13 0 0.424453 
42 2 14 0 0.424053 
226 1 76 0 -0.843096 
227 2 76 0 0.419786 
229 1 77 0 -0.843484 
230 2 77 0 0.419581 
231 2 77 0 0.423903 
232 1 78 0 -0.844965 
233 2 78 0 0.420447 
234 2 78 0 0.424518 
237 2 79 0 0.422292 
241 1 81 0 -0.84154 
242 2 81 0 0.418744 
244 1 82 0 -0.839886 
245 2 82 0 0.417913 
246 2 82 0 0.421973 
247 1 83 0 -0.839186 
248 2 83 0 0.417917 
249 2 83 0 0.421269 
252 2 84 0 0.422219 
256 1 86 0 -0.841211 
257 2 86 0 0.418803 
259 1 87 0 -0.844733 
260 2 87 0 0.420795 
261 2 87 0 0.423939 
262 1 88 0 -0.839947 
263 2 88 0 0.418385 
264 2 88 0 0.421562 
267 2 89 0 0.422035 
301 1 101 0 -0.845528 
302 2 101 0 0.420902 
304 1 102 0 -0.840835 
305 2 102 0 0.419039 
306 2 102 0 0.421796 
307 1 103 0 -0.838109 
308 2 103 0 0.416804 
309 2 103 0 0.421305 
312 2 104 0 0.422877 
316 1 106 0 -0.843219 
317 2 106 0 0.420091 
319 1 107 0 -0.842779 
320 2 107 0 0.419466 
321 2 107 0 0.423313 
322 1 108 0 -0.842869 
323 2 108 0 0.420607 
324 2 108 0 0.422261 
327 2 109 0 0.4233 
331 1 111 0 -0.846253 
332 2 111 0 0.421635 
334 1 112 0 -0.84356 
335 2 112 0 0.420037 
336 2 112 0 0.423523 
337 1 113 0 -0.841 
338 2 113 0 0.418779 
339 2 113 0 0.422221 
342 2 114 0 0.423455 
46 1 16 0 -0.837508 
47 2 16 0 0.416993 
49 1 17 0 -0.842568 
50 2 17 0 0.419718 
52 1 18 0 -0.846007 
53 2 18 0 0.421354 
61 1 21 0 -0.84341 
62 2 21 0 0.420292 
64 1 22 0 -0.85024 
65 2 22 0 0.423178 
67 1 23 0 -0.845494 
68 2 23 0 0.420758 
121 1 41 0 -0.841267 
122 2 41 0 0.419409 
124 1 42 0 -0.847937 
125 2 42 0 0.422489 
126 2 42 0 0.425448 
127 1 43 0 -0.842206 
128 2 43 0 0.419503 
129 2 43 0 0.422702 
132 2 44 0 0.423673 
136 1 46 0 -0.837877 
137 2 46 0 0.417788 
139 1 47 0 -0.839525 
140 2 47 0 0.417981 
141 2 47 0 0.421544 
142 1 48 0 -0.845392 
143 2 48 0 0.420829 
144 2 48 0 0.424563 
147 2 49 0 0.420752 
196 1 66 0 -0.841372 
197 2 66 0 0.41883 
199 1 67 0 -0.841468 
200 2 67 0 0.42051 
201 2 67 0 0.420957 
202 1 68 0 -0.847456 
203 2 68 0 0.421832 
204 2 68 0 0.425624 
207 2 69 0 0.421322 
211 1 71 0 -0.843587 
212 2 71 0 0.420344 
214 1 72 0 -0.845574 
215 2 72 0 0.421113 
216 2 72 0 0.424461 
217 1 73 0 -0.841107 
218 2 73 0 0.418833 
219 2 73 0 0.422274 
222 2 74 0 0.421218 
51 2 17 0 0.42285 
54 2 18 0 0.424653 
57 2 19 0 0.425045 
66 2 22 0 0.427063 
69 2 23 0 0.424736 
72 2 24 0 0.422406 
271 1 91 0 -0.847076 
272 2 91 0 0.421911 
274 1 92 0 -0.842721 
275 2 92 0 0.419979 
276 2 92 0 0.422742 
277 1 93 0 -0.838236 
278 2 93 0 0.416589 
279 2 93 0 0.421647 
282 2 94 0 0.421115 
286 1 96 0 -0.840204 
287 2 96 0 0.418634 
289 1 97 0 -0.843286 
290 2 97 0 0.420344 
291 2 97 0 0.422942 
292 1 98 0 -0.840409 
293 2 98 0 0.418517 
294 2 98 0 0.421892 
297 2 99 0 0.423328 
346 1 116 0 -0.846628 
347 2 116 0 0.42152 
349 1 117 0 -0.844996 
350 2 117 0 0.42111 
351 2 117 0 0.423887 
352 1 118 0 -0.84342 
353 2 118 0 0.420003 
354 2 118 0 0.423417 
357 2 119 0 0.422379 
361 1 121 0 -0.849135 
362 2 121 0 0.423195 
364 1 122 0 -0.84491 
365 2 122 0 0.420805 
366 2 122 0 0.424105 
367 1 123 0 -0.848229 
368 2 123 0 0.422291 
369 2 123 0 0.425938 
372 2 124 0 0.422091 
10 1 4 0 -0.845705 
11 2 4 0 0.420961 
13 1 5 0 -0.837905 
14 2 5 0 0.418138 
25 1 9 0 -0.842281 
26 2 9 0 0.419293 
28 1 10 0 -0.845066 
29 2 10 0 0.421025 
40 1 14 0 -0.844764 
41 2 14 0 0.420711 
43 1 15 0 -0.843862 
44 2 15 0 0.420236 
78 2 26 0 0.42329 
85 1 29 0 -0.844233 
86 2 29 0 0.420488 
88 1 30 0 -0.845877 
89 2 30 0 0.42104 
90 2 30 0 0.424837 
93 2 31 0 0.4241 
100 1 34 0 -0.839287 
101 2 34 0 0.418112 
103 1 35 0 -0.845028 
104 2 35 0 0.422053 
105 2 35 0 0.422975 
108 2 36 0 0.423317 
115 1 39 0 -0.843916 
116 2 39 0 0.420132 
118 1 40 0 -0.844784 
119 2 40 0 0.420957 
120 2 40 0 0.423828 
153 2 51 0 0.420759 
160 1 54 0 -0.841059 
161 2 54 0 0.41871 
163 1 55 0 -0.84749 
164 2 55 0 0.422339 
165 2 55 0 0.425151 
168 2 56 0 0.423108 
175 1 59 0 -0.840075 
176 2 59 0 0.418706 
178 1 60 0 -0.842396 
179 2 60 0 0.41934 
180 2 60 0 0.423056 
183 2 61 0 0.421744 
190 1 64 0 -0.843712 
191 2 64 0 0.420359 
193 1 65 0 -0.843437 
194 2 65 0 0.421066 
195 2 65 0 0.422371 
3 2 1 0 0.421229 
15 2 5 0 0.419767 
18 2 6 0 0.423532 
30 2 10 0 0.424041 
33 2 11 0 0.42202 
45 2 15 0 0.423626 
228 2 76 0 0.42331 
235 1 79 0 -0.84155 
236 2 79 0 0.419258 
238 1 80 0 -0.841224 
239 2 80 0 0.418974 
240 2 80 0 0.422251 
243 2 81 0 0.422796 
250 1 84 0 -0.841027 
251 2 84 0 0.418808 
253 1 85 0 -0.842543 
254 2 85 0 0.419655 
255 2 85 0 0.422887 
258 2 86 0 0.422408 
265 1 89 0 -0.840764 
266 2 89 0 0.418729 
268 1 90 0 -0.839344 
269 2 90 0 0.417524 
270 2 90 0 0.42182 
303 2 101 0 0.424626 
310 1 104 0 -0.841456 
311 2 104 0 0.418579 
313 1 105 0 -0.842407 
314 2 105 0 0.419234 
315 2 105 0 0.423173 
318 2 106 0 0.423128 
325 1 109 0 -0.843766 
326 2 109 0 0.420466 
328 1 110 0 -0.840845 
329 2 110 0 0.418317 
330 2 110 0 0.422528 
333 2 111 0 0.424617 
340 1 114 0 -0.843474 
341 2 114 0 0.420018 
343 1 115 0 -0.841734 
344 2 115 0 0.419365 
345 2 115 0 0.422368 
55 1 19 0 -0.845965 
56 2 19 0 0.42092 
58 1 20 0 -0.847625 
59 2 20 0 0.422084 
70 1 24 0 -0.84129 
71 2 24 0 0.418884 
73 1 25 0 -0.840222 
74 2 25 0 0.418633 
123 2 41 0 0.421858 
130 1 44 0 -0.843955 
131 2 44 0 0.420281 
133 1 45 0 -0.844107 
134 2 45 0 0.420062 
135 2 45 0 0.424046 
138 2 46 0 0.42009 
145 1 49 0 -0.838506 
146 2 49 0 0.417754 
148 1 50 0 -0.843309 
149 2 50 0 0.420101 
150 2 50 0 0.423209 
198 2 66 0 0.422542 
205 1 69 0 -0.838934 
206 2 69 0 0.417611 
208 1 70 0 -0.848085 
209 2 70 0 0.422263 
210 2 70 0 0.425821 
213 2 71 0 0.423243 
220 1 74 0 -0.838963 
221 2 74 0 0.417744 
223 1 75 0 -0.841017 
224 2 75 0 0.418799 
225 2 75 0 0.422218 
48 2 16 0 0.420516 
60 2 20 0 0.425541 
63 2 21 0 0.423118 
75 2 25 0 0.421589 
273 2 91 0 0.425165 
280 1 94 0 -0.841168 
281 2 94 0 0.420052 
283 1 95 0 -0.843099 
284 2 95 0 0.419894 
285 2 95 0 0.423205 
288 2 96 0 0.421569 
295 1 99 0 -0.843895 
296 2 99 0 0.420566 
298 1 100 0 -0.845818 
299 2 100 0 0.421595 
300 2 100 0 0.424224 
348 2 116 0 0.425109 
355 1 119 0 -0.841246 
356 2 119 0 0.418867 
358 1 120 0 -0.844922 
359 2 120 0 0.421238 
360 2 120 0 0.423684 
363 2 121 0 0.42594 
370 1 124 0 -0.840316 
371 2 124 0 0.418225 
373 1 125 0 -0.845166 
374 2 125 0 0.421006 
375 2 125 0 0.42416 
ITEM: TIMESTEP
20
ITEM: NUMBER OF ATOMS
375
ITEM: BOX BOUNDS pp pp pp
0.0000000000000000e+00 7.5000000000000000e+00
0.0000000000000000e+00 7.5000000000000000e+00
0.0000000000000000e+00 7.5000000000000000e+00
ITEM: ATOMS id type mol proc q 
1 1 1 0 -0.835516 
2 2 1 0 0.416122 
4 1 2 0 -0.842028 
5 2 2 0 0.419297 
7 1 3 0 -0.843439 
8 2 3 0 0.420554 
16 1 6 0 -0.844062 
17 2 6 0 0.4204 
19 1 7 0 -0.846673 
20 2 7 0 0.422622 
22 1 8 0 -0.840462 
23 2 8 0 0.41879 
31 1 11 0 -0.837661 
32 2 11 0 0.417023 
34 1 12 0 -0.842787 
35 2 12 0 0.41946 
37 1 13 0 -0.846575 
38 2 13 0 0.421418 
76 1 26 0 -0.842683 
77 2 26 0 0.419677 
79 1 27 0 -0.845211 
80 2 27 0 0.420303 
81 2 27 0 0.424908 
82 1 28 0 -0.844888 
83 2 28 0 0.420809 
84 2 28 0 0.424079 
87 2 29 0 0.424129 
91 1 31 0 -0.843183 
92 2 31 0 0.417873 
94 1 32 0 -0.842365 
95 2 32 0 0.419685 
96 2 32 0 0.42268 
97 1 33 0 -0.842788 
98 2 33 0 0.420852 
99 2 33 0 0.421935 
102 2 34 0 0.41925 
106 1 36 0 -0.843197 
107 2 36 0 0.42007 
109 1 37 0 -0.834816 
110 2 37 0 0.414699 
111 2 37 0 0.420117 
112 1 38 0 -0.841018 
113 2 38 0 0.418347 
114 2 38 0 0.422672 
117 2 39 0 0.42407 
151 1 51 0 -0.8339 
152 2 51 0 0.415402 
154 1 52 0 -0.847606 
155 2 52 0 0.421552 
156 2 52 0 0.426055 
157 1 53 0 -0.843016 
158 2 53 0 0.419973 
159 2 53 0 0.423043 
162 2 54 0 0.421551 
166 1 56 0 -0.842171 
167 2 56 0 0.41945 
169 1 57 0 -0.838343 
170 2 57 0 0.415952 
171 2 57 0 0.422392 
172 1 58 0 -0.840891 
173 2 58 0 0.418095 
174 2 58 0 0.422796 
177 2 59 0 0.419559 
181 1 61 0 -0.837155 
182 2 61 0 0.416827 
184 1 62 0 -0.840914 
185 2 62 0 0.41944 
186 2 62 0 0.421474 
187 1 63 0 -0.842139 
188 2 63 0 0.419592 
189 2 63 0 0.422547 
192 2 64 0 0.423332 
6 2 2 0 0.422731 
9 2 3 0 0.422886 
12 2 4 0 0.425369 
21 2 7 0 0.424052 
24 2 8 0 0.421671 
27 2 9 0 0.422811 
36 2 12 0 0.423327 
39 2 13 0 0.425157 
42 2 14 0 0.424513 
226 1 76 0 -0.842433 
227 2 76 0 0.419444 
229 1 77 0 -0.843626 
230 2 77 0 0.419036 
231 2 77 0 0.424589 
232 1 78 0 -0.846105 
233 2 78 0 0.420488 
234 2 78 0 0.425617 
237 2 79 0 0.421295 
241 1 81 0 -0.83981 
242 2 81 0 0.417608 
244 1 82 0 -0.837727 
245 2 82 0 0.416287 
246 2 82 0 0.421441 
247 1 83 0 -0.83485 
248 2 83 0 0.415616 
249 2 83 0 0.419234 
252 2 84 0 0.421127 
256 1 86 0 -0.839322 
257 2 86 0 0.417719 
259 1 87 0 -0.845737 
260 2 87 0 0.420703 
261 2 87 0 0.425034 
262 1 88 0 -0.837159 
263 2 88 0 0.417138 
264 2 88 0 0.42002 
267 2 89 0 0.421313 
301 1 101 0 -0.847189 
302 2 101 0 0.421668 
304 1 102 0 -0.839643 
305 2 102 0 0.419134 
306 2 102 0 0.420509 
307 1 103 0 -0.835547 
308 2 103 0 0.414724 
309 2 103 0 0.420823 
312 2 104 0 0.422527 
316 1 106 0 -0.842946 
317 2 106 0 0.419834 
319 1 107 0 -0.842381 
320 2 107 0 0.418981 
321 2 107 0 0.4234 
322 1 108 0 -0.842666 
323 2 108 0 0.422143 
324 2 108 0 0.420523 
327 2 109 0 0.422783 
331 1 111 0 -0.848044 
332 2 111 0 0.423007 
334 1 112 0 -0.843365 
335 2 112 0 0.419928 
336 2 112 0 0.423437 
337 1 113 0 -0.839241 
338 2 113 0 0.417932 
339 2 113 0 0.421309 
342 2 114 0 0.423415 
46 1 16 0 -0.831497 
47 2 16 0 0.414061 
49 1 17 0 -0.841499 
50 2 17 0 0.419014 
52 1 18 0 -0.848046 
53 2 18 0 0.422419 
61 1 21 0 -0.843452 
62 2 21 0 0.420513 
64 1 22 0 -0.855858 
65 2 22 0 0.425865 
67 1 23 0 -0.847138 
68 2 23 0 0.421741 
121 1 41 0 -0.839374 
122 2 41 0 0.418893 
124 1 42 0 -0.851321 
125 2 42 0 0.424564 
126 2 42 0 0.426757 
127 1 43 0 -0.840796 
128 2 43 0 0.41882 
129 2 43 0 0.421976 
132 2 44 0 0.423782 
136 1 46 0 -0.832552 
137 2 46 0 0.415393 
139 1 47 0 -0.836462 
140 2 47 0 0.416326 
141 2 47 0 0.420136 
142 1 48 0 -0.846852 
143 2 48 0 0.421588 
144 2 48 0 0.425265 
147 2 49 0 0.418386 
196 1 66 0 -0.839574 
197 2 66 0 0.417808 
199 1 67 0 -0.84033 
200 2 67 0 0.422887 
201 2 67 0 0.417444 
202 1 68 0 -0.850569 
203 2 68 0 0.42377 
204 2 68 0 0.426799 
207 2 69 0 0.419523 
211 1 71 0 -0.84365 
212 2 71 0 0.420696 
214 1 72 0 -0.847275 
215 2 72 0 0.422012 
216 2 72 0 0.425263 
217 1 73 0 -0.83872 
218 2 73 0 0.417683 
219 2 73 0 0.421038 
222 2 74 0 0.418923 
51 2 17 0 0.422485 
54 2 18 0 0.425627 
57 2 19 0 0.426328 
66 2 22 0 0.429994 
69 2 23 0 0.425398 
72 2 24 0 0.421363 
271 1 91 0 -0.850066 
272 2 91 0 0.423501 
274 1 92 0 -0.842068 
275 2 92 0 0.419913 
276 2 92 0 0.422154 
277 1 93 0 -0.835776 
278 2 93 0 0.414223 
279 2 93 0 0.421553 
282 2 94 0 0.418728 
286 1 96 0 -0.837478 
287 2 96 0 0.417508 
289 1 97 0 -0.843239 
290 2 97 0 0.420965 
291 2 97 0 0.422274 
292 1 98 0 -0.837699 
293 2 98 0 0.417184 
294 2 98 0 0.420515 
297 2 99 0 0.423186 
346 1 116 0 -0.849266 
347 2 116 0 0.422864 
349 1 117 0 -0.846063 
350 2 117 0 0.422271 
351 2 117 0 0.423792 
352 1 118 0 -0.843341 
353 2 118 0 0.419992 
354 2 118 0 0.423349 
357 2 119 0 0.421261 
361 1 121 0 -0.853873 
362 2 121 0 0.424784 
364 1 122 0 -0.845704 
365 2 122 0 0.42107 
366 2 122 0 0.424634 
367 1 123 0 -0.851575 
368 2 123 0 0.424601 
369 2 123 0 0.426975 
372 2 124 0 0.42101 
10 1 4 0 -0.847451 
11 2 4 0 0.422082 
13 1 5 0 -0.834041 
14 2 5 0 0.417681 
25 1 9 0 -0.841678 
26 2 9 0 0.418866 
28 1 10 0 -0.846237 
29 2 10 0 0.422035 
40 1 14 0 -0.845726 
41 2 14 0 0.421213 
43 1 15 0 -0.843691 
44 2 15 0 0.420124 
78 2 26 0 0.423006 
85 1 29 0 -0.844701 
86 2 29 0 0.420571 
88 1 30 0 -0.846766 
89 2 30 0 0.421211 
90 2 30 0 0.425555 
93 2 31 0 0.42531 
100 1 34 0 -0.835906 
101 2 34 0 0.416657 
103 1 35 0 -0.846194 
104 2 35 0 0.424715 
105 2 35 0 0.42148 
108 2 36 0 0.423127 
115 1 39 0 -0.844234 
116 2 39 0 0.420164 
118 1 40 0 -0.845276 
119 2 40 0 0.422049 
120 2 40 0 0.423227 
153 2 51 0 0.418499 
160 1 54 0 -0.839131 
161 2 54 0 0.41758 
163 1 55 0 -0.850922 
164 2 55 0 0.424264 
165 2 55 0 0.426657 
168 2 56 0 0.422721 
175 1 59 0 -0.837237 
176 2 59 0 0.417678 
178 1 60 0 -0.84131 
179 2 60 0 0.418941 
180 2 60 0 0.422368 
183 2 61 0 0.420327 
190 1 64 0 -0.843882 
191 2 64 0 0.42055 
193 1 65 0 -0.84359 
194 2 65 0 0.423131 
195 2 65 0 0.420458 
3 2 1 0 0.419394 
15 2 5 0 0.41636 
18 2 6 0 0.423662 
30 2 10 0 0.424202 
33 2 11 0 0.420638 
45 2 15 0 0.423567 
228 2 76 0 0.42299 
235 1 79 0 -0.839965 
236 2 79 0 0.41867 
238 1 80 0 -0.838905 
239 2 80 0 0.417763 
240 2 80 0 0.421142 
243 2 81 0 0.422202 
250 1 84 0 -0.838871 
251 2 84 0 0.417744 
253 1 85 0 -0.841457 
254 2 85 0 0.41911 
255 2 85 0 0.422347 
258 2 86 0 0.421603 
265 1 89 0 -0.839766 
266 2 89 0 0.418453 
268 1 90 0 -0.837574 
269 2 90 0 0.415947 
270 2 90 0 0.421627 
303 2 101 0 0.425522 
310 1 104 0 -0.839698 
311 2 104 0 0.417171 
313 1 105 0 -0.841507 
314 2 105 0 0.418595 
315 2 105 0 0.422912 
318 2 106 0 0.423112 
325 1 109 0 -0.844 
326 2 109 0 0.421217 
328 1 110 0 -0.83861 
329 2 110 0 0.41668 
330 2 110 0 0.42193 
333 2 111 0 0.425037 
340 1 114 0 -0.843466 
341 2 114 0 0.420051 
343 1 115 0 -0.839907 
344 2 115 0 0.418218 
345 2 115 0 0.421689 
55 1 19 0 -0.847944 
56 2 19 0 0.421616 
58 1 20 0 -0.851234 
59 2 20 0 0.423866 
70 1 24 0 -0.839182 
71 2 24 0 0.417819 
73 1 25 0 -0.836987 
74 2 25 0 0.416913 
123 2 41 0 0.420481 
130 1 44 0 -0.844168 
131 2 44 0 0.420386 
133 1 45 0 -0.844598 
134 2 45 0 0.420287 
135 2 45 0 0.424311 
138 2 46 0 0.417159 
145 1 49 0 -0.833841 
146 2 49 0 0.415455 
148 1 50 0 -0.843146 
149 2 50 0 0.420225 
150 2 50 0 0.42292 
198 2 66 0 0.421766 
205 1 69 0 -0.834943 
206 2 69 0 0.415421 
208 1 70 0 -0.851533 
209 2 70 0 0.424021 
210 2 70 0 0.427512 
213 2 71 0 0.422954 
220 1 74 0 -0.834568 
221 2 74 0 0.415645 
223 1 75 0 -0.839189 
224 2 75 0 0.417915 
225 2 75 0 0.421274 
48 2 16 0 0.417436 
60 2 20 0 0.427368 
63 2 21 0 0.422938 
75 2 25 0 0.420074 
273 2 91 0 0.426565 
280 1 94 0 -0.840677 
281 2 94 0 0.421948 
283 1 95 0 -0.842499 
284 2 95 0 0.419606 
285 2 95 0 0.422892 
288 2 96 0 0.41997 
295 1 99 0 -0.844308 
296 2 99 0 0.421122 
298 1 100 0 -0.847691 
299 2 100 0 0.423017 
300 2 100 0 0.424674 
348 2 116 0 0.426402 
355 1 119 0 -0.839035 
356 2 119 0 0.417774 
358 1 120 0 -0.845935 
359 2 120 0 0.422791 
360 2 120 0 0.423144 
363 2 121 0 0.429088 
370 1 124 0 -0.837546 
371 2 124 0 0.416535 
373 1 125 0 -0.846458 
374 2 125 0 0.421855 
375 2 125 0 0.424603 
ITEM: TIMESTEP
30
ITEM: NUMBER OF ATOMS
375
ITEM: BOX BOUNDS pp pp pp
0.0000000000000000e+00 7.5000000000000000e+00
0.0000000000000000e+00 7.5000000000000000e+00
0.0000000000000000e+00 7.5000000000000000e+00
ITEM: ATOMS id type mol proc q 
1 1 1 0 -0.832698 
2 2 1 0 0.414745 
4 1 2 0 -0.840293 
5 2 2 0 0.418353 
7 1 3 0 -0.842877 
8 2 3 0 0.420552 
16 1 6 0 -0.843162 
17 2 6 0 0.419968 
19 1 7 0 -0.847411 
20 2 7 0 0.42374 
22 1 8 0 -0.838858 
23 2 8 0 0.418054 
31 1 11 0 -0.835401 
32 2 11 0 0.415896 
34 1 12 0 -0.841714 
35 2 12 0 0.419052 
37 1 13 0 -0.847043 
38 2 13 0 0.421629 
76 1 26 0 -0.841378 
77 2 26 0 0.419022 
79 1 27 0 -0.84549 
80 2 27 0 0.420021 
81 2 27 0 0.425469 
82 1 28 0 -0.844925 
83 2 28 0 0.420894 
84 2 28 0 0.42403 
87 2 29 0 0.423921 
91 1 31 0 -0.842907 
92 2 31 0 0.417028 
94 1 32 0 -0.841625 
95 2 32 0 0.419514 
96 2 32 0 0.422111 
97 1 33 0 -0.84253 
98 2 33 0 0.421749 
99 2 33 0 0.420781 
102 2 34 0 0.417573 
106 1 36 0 -0.84263 
107 2 36 0 0.419926 
109 1 37 0 -0.832038 
110 2 37 0 0.412698 
111 2 37 0 0.419339 
112 1 38 0 -0.839554 
113 2 38 0 0.41685 
114 2 38 0 0.422704 
117 2 39 0 0.424065 
151 1 51 0 -0.831066 
152 2 51 0 0.41415 
154 1 52 0 -0.848039 
155 2 52 0 0.421591 
156 2 52 0 0.426447 
157 1 53 0 -0.842631 
158 2 53 0 0.420021 
159 2 53 0 0.422611 
162 2 54 0 0.420772 
166 1 56 0 -0.841002 
167 2 56 0 0.418876 
169 1 57 0 -0.836617 
170 2 57 0 0.413974 
171 2 57 0 0.422642 
172 1 58 0 -0.839941 
173 2 58 0 0.41725 
174 2 58 0 0.42269 
177 2 59 0 0.417854 
181 1 61 0 -0.834736 
182 2 61 0 0.415635 
184 1 62 0 -0.840138 
185 2 62 0 0.419731 
186 2 62 0 0.420406 
187 1 63 0 -0.841995 
188 2 63 0 0.419963 
189 2 63 0 0.422032 
192 2 64 0 0.422846 
6 2 2 0 0.42194 
9 2 3 0 0.422325 
12 2 4 0 0.424633 
21 2 7 0 0.423671 
24 2 8 0 0.420804 
27 2 9 0 0.422571 
36 2 12 0 0.422662 
39 2 13 0 0.425414 
42 2 14 0 0.424591 
226 1 76 0 -0.840905 
227 2 76 0 0.418799 
229 1 77 0 -0.843484 
230 2 77 0 0.418472 
231 2 77 0 0.425012 
232 1 78 0 -0.846583 
233 2 78 0 0.420187 
234 2 78 0 0.426395 
237 2 79 0 0.420236 
241 1 81 0 -0.838143 
242 2 81 0 0.416583 
244 1 82 0 -0.836678 
245 2 82 0 0.415295 
246 2 82 0 0.421382 
247 1 83 0 -0.832288 
248 2 83 0 0.414269 
249 2 83 0 0.418019 
252 2 84 0 0.420124 
256 1 86 0 -0.837622 
257 2 86 0 0.416708 
259 1 87 0 -0.845058 
260 2 87 0 0.41936 
261 2 87 0 0.425697 
262 1 88 0 -0.83496 
263 2 88 0 0.416273 
264 2 88 0 0.418686 
267 2 89 0 0.420813 
301 1 101 0 -0.847493 
302 2 101 0 0.421937 
304 1 102 0 -0.839442 
305 2 102 0 0.420122 
306 2 102 0 0.419321 
307 1 103 0 -0.835159 
308 2 103 0 0.414121 
309 2 103 0 0.421038 
312 2 104 0 0.42207 
316 1 106 0 -0.841858 
317 2 106 0 0.418994 
319 1 107 0 -0.842052 
320 2 107 0 0.418696 
321 2 107 0 0.423356 
322 1 108 0 -0.842485 
323 2 108 0 0.424335 
324 2 108 0 0.41815 
327 2 109 0 0.42172 
331 1 111 0 -0.848622 
332 2 111 0 0.424078 
334 1 112 0 -0.842126 
335 2 112 0 0.419331 
336 2 112 0 0.422795 
337 1 113 0 -0.838067 
338 2 113 0 0.417491 
339 2 113 0 0.420576 
342 2 114 0 0.423101 
46 1 16 0 -0.827874 
47 2 16 0 0.412344 
49 1 17 0 -0.839988 
50 2 17 0 0.418092 
52 1 18 0 -0.849043 
53 2 18 0 0.422925 
61 1 21 0 -0.842995 
62 2 21 0 0.42056 
64 1 22 0 -0.85711 
65 2 22 0 0.426488 
67 1 23 0 -0.847225 
68 2 23 0 0.4224 
121 1 41 0 -0.837627 
122 2 41 0 0.41839 
124 1 42 0 -0.853297 
125 2 42 0 0.426132 
126 2 42 0 0.427165 
127 1 43 0 -0.838949 
128 2 43 0 0.417898 
129 2 43 0 0.421052 
132 2 44 0 0.423312 
136 1 46 0 -0.829403 
137 2 46 0 0.413835 
139 1 47 0 -0.833951 
140 2 47 0 0.414911 
141 2 47 0 0.41904 
142 1 48 0 -0.846896 
143 2 48 0 0.421741 
144 2 48 0 0.425154 
147 2 49 0 0.416767 
196 1 66 0 -0.837832 
197 2 66 0 0.416844 
199 1 67 0 -0.839479 
200 2 67 0 0.426166 
201 2 67 0 0.413313 
202 1 68 0 -0.850513 
203 2 68 0 0.424538 
204 2 68 0 0.425975 
207 2 69 0 0.418313 
211 1 71 0 -0.843358 
212 2 71 0 0.420975 
214 1 72 0 -0.848063 
215 2 72 0 0.422447 
216 2 72 0 0.425616 
217 1 73 0 -0.836651 
218 2 73 0 0.416666 
219 2 73 0 0.419985 
222 2 74 0 0.417387 
51 2 17 0 0.421896 
54 2 18 0 0.426119 
57 2 19 0 0.426869 
66 2 22 0 0.430622 
69 2 23 0 0.424825 
72 2 24 0 0.420288 
271 1 91 0 -0.851722 
272 2 91 0 0.424374 
274 1 92 0 -0.841072 
275 2 92 0 0.419639 
276 2 92 0 0.421433 
277 1 93 0 -0.835399 
278 2 93 0 0.413372 
279 2 93 0 0.422028 
282 2 94 0 0.416546 
286 1 96 0 -0.835208 
287 2 96 0 0.416617 
289 1 97 0 -0.843032 
290 2 97 0 0.421725 
291 2 97 0 0.421307 
292 1 98 0 -0.835308 
293 2 98 0 0.416039 
294 2 98 0 0.419268 
297 2 99 0 0.422369 
346 1 116 0 -0.850366 
347 2 116 0 0.423412 
349 1 117 0 -0.846512 
350 2 117 0 0.423476 
351 2 117 0 0.423037 
352 1 118 0 -0.842925 
353 2 118 0 0.41989 
354 2 118 0 0.423035 
357 2 119 0 0.42014 
361 1 121 0 -0.854273 
362 2 121 0 0.423974 
364 1 122 0 -0.844325 
365 2 122 0 0.420229 
366 2 122 0 0.424097 
367 1 123 0 -0.850518 
368 2 123 0 0.424879 
369 2 123 0 0.425639 
372 2 124 0 0.420195 
10 1 4 0 -0.847407 
11 2 4 0 0.422774 
13 1 5 0 -0.831205 
14 2 5 0 0.417952 
25 1 9 0 -0.8415 
26 2 9 0 0.418929 
28 1 10 0 -0.846768 
29 2 10 0 0.423019 
40 1 14 0 -0.845894 
41 2 14 0 0.421303 
43 1 15 0 -0.842016 
44 2 15 0 0.419276 
78 2 26 0 0.422356 
85 1 29 0 -0.843986 
86 2 29 0 0.420065 
88 1 30 0 -0.846226 
89 2 30 0 0.421008 
90 2 30 0 0.425218 
93 2 31 0 0.425879 
100 1 34 0 -0.833263 
101 2 34 0 0.41569 
103 1 35 0 -0.846827 
104 2 35 0 0.427888 
105 2 35 0 0.418939 
108 2 36 0 0.422704 
115 1 39 0 -0.84395 
116 2 39 0 0.419885 
118 1 40 0 -0.844958 
119 2 40 0 0.423282 
120 2 40 0 0.421676 
153 2 51 0 0.416916 
160 1 54 0 -0.837322 
161 2 54 0 0.41655 
163 1 55 0 -0.852743 
164 2 55 0 0.425202 
165 2 55 0 0.427541 
168 2 56 0 0.422127 
175 1 59 0 -0.834752 
176 2 59 0 0.416898 
178 1 60 0 -0.839808 
179 2 60 0 0.418539 
180 2 60 0 0.421269 
183 2 61 0 0.419102 
190 1 64 0 -0.843531 
191 2 64 0 0.420685 
193 1 65 0 -0.843532 
194 2 65 0 0.425869 
195 2 65 0 0.417662 
3 2 1 0 0.417953 
15 2 5 0 0.413253 
18 2 6 0 0.423194 
30 2 10 0 0.423749 
33 2 11 0 0.419505 
45 2 15 0 0.42274 
228 2 76 0 0.422106 
235 1 79 0 -0.838447 
236 2 79 0 0.41821 
238 1 80 0 -0.836581 
239 2 80 0 0.416523 
240 2 80 0 0.420058 
243 2 81 0 0.42156 
250 1 84 0 -0.836905 
251 2 84 0 0.416781 
253 1 85 0 -0.839923 
254 2 85 0 0.418365 
255 2 85 0 0.421557 
258 2 86 0 0.420914 
265 1 89 0 -0.839981 
266 2 89 0 0.419168 
268 1 90 0 -0.837563 
269 2 90 0 0.415652 
270 2 90 0 0.421911 
303 2 101 0 0.425556 
310 1 104 0 -0.837941 
311 2 104 0 0.41587 
313 1 105 0 -0.840443 
314 2 105 0 0.417871 
315 2 105 0 0.422572 
318 2 106 0 0.422864 
325 1 109 0 -0.843975 
326 2 109 0 0.422256 
328 1 110 0 -0.836545 
329 2 110 0 0.415127 
330 2 110 0 0.421419 
333 2 111 0 0.424545 
340 1 114 0 -0.843171 
341 2 114 0 0.42007 
343 1 115 0 -0.837988 
344 2 115 0 0.416737 
345 2 115 0 0.421252 
55 1 19 0 -0.848668 
56 2 19 0 0.421799 
58 1 20 0 -0.852617 
59 2 20 0 0.424594 
70 1 24 0 -0.837075 
71 2 24 0 0.416787 
73 1 25 0 -0.834549 
74 2 25 0 0.415445 