LAMMPS (11 May 2018)
  using 4 OpenMP thread(s) per MPI task
units real
atom_style full

bond_style table linear 301
pair_style polir/vdw 6.0

neigh_modify every 1 delay 1
neighbor 0.3 bin

read_data "125wat.data"
  orthogonal box = (0 0 0) to (7.5 7.5 7.5)
  1 by 2 by 2 MPI processor grid
  reading atoms ...
  375 atoms
  scanning bonds ...
  2 = max bonds/atom
  reading bonds ...
  250 bonds
  2 = max # of 1-2 neighbors
  1 = max # of 1-3 neighbors
  1 = max # of 1-4 neighbors
  2 = max # of special neighbors

# VdW interactions
pair_coeff 1 1 7.61978e-09 -4.07504e-07 5.80846e-06 -0.00292171
pair_coeff 1 2 0.0 0.0 0.0 0.0
pair_coeff 2 2 0.0 0.0 0.0 0.0

bond_coeff 1 PS_bond_potential.table POLIR
WARNING: 5 of 301 force values in table are inconsistent with -dE/dr.
  Should only be flagged at inflection points (../bond_table.cpp:380)

timestep 1.0

variable temp equal 300.0
velocity all create ${temp} 1091823 rot yes dist gaussian
velocity all create 300 1091823 rot yes dist gaussian
fix f1 all nvt temp ${temp} ${temp} 1000.0
fix f1 all nvt temp 300 ${temp} 1000.0
fix f1 all nvt temp 300 300 1000.0

fix 1 all polir 2 1 0.42 0.96 0.120 -0.136

thermo 10
thermo_style custom step temp press pe ebond ke

dump d1 all dcd 10 dump.dcd
dump_modify d1 unwrap yes

run 1000
Neighbor list info ...
  update every 1 steps, delay 1 steps, check yes
  max neighbors/atom: 2000, page size: 100000
  master list distance cutoff = 6.3
  ghost atom cutoff = 6.3
  binsize = 3.15, bins = 3 3 3
  1 neighbor lists, perpetual/occasional/extra = 1 0 0
  (1) pair polir/vdw, perpetual
      attributes: half, newton on
      pair build: half/bin/newton
      stencil: half/bin/3d/newton
      bin: standard
Per MPI rank memory allocation (min/avg/max) = 8.866 | 8.966 | 9.252 Mbytes
Step Temp Press PotEng E_bond KinEng 
       0          300   -232393.29      37.5624    37.696149    334.44689 
      10    294.19591   -220902.74    49.644326    49.780591    327.97635 
      20     281.0252   -174145.42    70.112845    70.257319    313.29334 
      30    269.98055    -102407.8    87.997411    88.158026    300.98051 
      40    268.28954   -25465.955    91.925004    92.114777    299.09534 
      50    273.54332    37728.127    84.021383    84.264344    304.95237 
      60    277.79908    77225.366    77.489173     77.83213     309.6968 
      70    277.77694    91100.052    77.163835    77.701603    309.67211 
      80    275.34103    81410.011    80.385024    81.362684     306.9565 
      90    272.92757    59388.724    84.224387    86.015257    304.26593 
     100    271.06424    39976.955    90.236958    89.090445    302.18863 
     110    272.47917    27447.811    85.829824    88.769068    303.76603 
     120    272.21092    20012.496    86.748784    90.487064    303.46698 
     130    271.22487    9650.1858    88.698901    91.806303    302.36771 
     140    270.63358   -3770.8556    92.542229    91.624385    301.70853 
     150    272.92841   -18404.599    85.204159    91.573576    304.26686 
     160    272.57155   -22430.924    85.407843    91.290904    303.86902 
     170    273.22266   -12805.248    84.211318    89.197443    304.59489 
     180     275.3547    4050.4896    81.480105      86.2414    306.97174 
     190    277.85757    18838.212    76.607565    82.842814      309.762 
     200    278.57938    22816.666    75.404039    81.521884    310.56669 
     210    277.67257    14046.258     77.76961    82.731703    309.55576 
     220    277.60848   -3501.2572    78.546356    83.751216    309.48431 
     230    277.25019   -22542.456    79.786548     83.79488    309.08488 
     240    275.91064   -37557.266    81.975873    85.947053    307.59151 
     250    274.62157   -47776.331    84.408503     88.79354    306.15443 
     260    275.47323   -55410.964    82.548809    87.618836    307.10388 
     270    275.98377   -57932.058    83.521593    85.862854    307.67304 
     280    276.55625   -54743.108     81.52302    86.844127    308.31126 
     290    275.15712   -47086.738    83.567679    89.961491    306.75147 
     300    273.98162    -3