ITEM: TIMESTEP
0
ITEM: NUMBER OF ATOMS
6
ITEM: BOX BOUNDS pp pp pp
0.0000000000000000e+00 3.0000000000000000e+00
0.0000000000000000e+00 3.0000000000000000e+00
0.0000000000000000e+00 3.0000000000000000e+00
ITEM: ATOMS id type mol proc q 
1 1 1 0 -0.84 
2 2 1 0 0.42 
3 2 1 0 0.42 
4 1 2 0 -0.84 
5 2 2 0 0.42 
6 2 2 0 0.42 
ITEM: TIMESTEP
10
ITEM: NUMBER OF ATOMS
6
ITEM: BOX BOUNDS pp pp pp
0.0000000000000000e+00 3.0000000000000000e+00
0.0000000000000000e+00 3.0000000000000000e+00
0.0000000000000000e+00 3.0000000000000000e+00
ITEM: ATOMS id type mol proc q 
1 1 1 0 -0.838009 
2 2 1 0 0.417307 
3 2 1 0 0.420701 
4 1 2 0 -0.843004 
5 2 2 0 0.419867 
6 2 2 0 0.423137 
