ITEM: TIMESTEP
0
ITEM: NUMBER OF ATOMS
6
ITEM: BOX BOUNDS pp pp pp
0.0000000000000000e+00 3.0000000000000000e+00
0.0000000000000000e+00 3.0000000000000000e+00
0.0000000000000000e+00 3.0000000000000000e+00
ITEM: ATOMS id type mol proc q 
1 1 1 0 -0.84 
2 2 1 0 0.42 
3 2 1 0 0.42 
4 1 2 0 -0.84 
5 2 2 0 0.42 
6 2 2 0 0.42 
ITEM: TIMESTEP
1
ITEM: NUMBER OF ATOMS
6
ITEM: BOX BOUNDS pp pp pp
0.0000000000000000e+00 3.0000000000000000e+00
0.0000000000000000e+00 3.0000000000000000e+00
0.0000000000000000e+00 3.0000000000000000e+00
ITEM: ATOMS id type mol proc q 
1 1 1 0 -0.852556 
2 2 1 0 0.426461 
3 2 1 0 0.426095 
4 1 2 0 -0.840134 
5 2 2 0 0.418376 
6 2 2 0 0.421759 
ITEM: TIMESTEP
2
ITEM: NUMBER OF ATOMS
6
ITEM: BOX BOUNDS pp pp pp
0.0000000000000000e+00 3.0000000000000000e+00
0.0000000000000000e+00 3.0000000000000000e+00
0.0000000000000000e+00 3.0000000000000000e+00
ITEM: ATOMS id type mol proc q 
1 1 1 0 -0.846912 
2 2 1 0 0.425248 
3 2 1 0 0.421664 
4 1 2 0 -0.837023 
5 2 2 0 0.418981 
6 2 2 0 0.418043 
ITEM: TIMESTEP
3
ITEM: NUMBER OF ATOMS
6
ITEM: BOX BOUNDS pp pp pp
0.0000000000000000e+00 3.0000000000000000e+00
0.0000000000000000e+00 3.0000000000000000e+00
0.0000000000000000e+00 3.0000000000000000e+00
ITEM: ATOMS id type mol proc q 
1 1 1 0 -0.832608 
2 2 1 0 0.417404 
3 2 1 0 0.415204 
4 1 2 0 -0.837666 
5 2 2 0 0.420676 
6 2 2 0 0.41699 
ITEM: TIMESTEP
4
ITEM: NUMBER OF ATOMS
6
ITEM: BOX BOUNDS pp pp pp
0.0000000000000000e+00 3.0000000000000000e+00
0.0000000000000000e+00 3.0000000000000000e+00
0.0000000000000000e+00 3.0000000000000000e+00
ITEM: ATOMS id type mol proc q 
1 1 1 0 -0.828345 
2 2 1 0 0.412877 
3 2 1 0 0.415468 
4 1 2 0 -0.84128 
5 2 2 0 0.421132 
6 2 2 0 0.420148 
ITEM: TIMESTEP
5
ITEM: NUMBER OF ATOMS
6
ITEM: BOX BOUNDS pp pp pp
0.0000000000000000e+00 3.0000000000000000e+00
0.0000000000000000e+00 3.0000000000000000e+00
0.0000000000000000e+00 3.0000000000000000e+00
ITEM: ATOMS id type mol proc q 
1 1 1 0 -0.840486 
2 2 1 0 0.418564 
3 2 1 0 0.421922 
4 1 2 0 -0.843091 
5 2 2 0 0.419908 
6 2 2 0 0.423183 
ITEM: TIMESTEP
6
ITEM: NUMBER OF ATOMS
6
ITEM: BOX BOUNDS pp pp pp
0.0000000000000000e+00 3.0000000000000000e+00
0.0000000000000000e+00 3.0000000000000000e+00
0.0000000000000000e+00 3.0000000000000000e+00
ITEM: ATOMS id type mol proc q 
1 1 1 0 -0.851993 
2 2 1 0 0.42613 
3 2 1 0 0.425862 
4 1 2 0 -0.840883 
5 2 2 0 0.418697 
6 2 2 0 0.422186 
ITEM: TIMESTEP
7
ITEM: NUMBER OF ATOMS
6
ITEM: BOX BOUNDS pp pp pp
0.0000000000000000e+00 3.0000000000000000e+00
0.0000000000000000e+00 3.0000000000000000e+00
0.0000000000000000e+00 3.0000000000000000e+00
ITEM: ATOMS id type mol proc q 
1 1 1 0 -0.848891 
2 2 1 0 0.426187 
3 2 1 0 0.422704 
4 1 2 0 -0.837466 
5 2 2 0 0.419122 
6 2 2 0 0.418344 
ITEM: TIMESTEP
8
ITEM: NUMBER OF ATOMS
6
ITEM: BOX BOUNDS pp pp pp
0.0000000000000000e+00 3.0000000000000000e+00
0.0000000000000000e+00 3.0000000000000000e+00
0.0000000000000000e+00 3.0000000000000000e+00
ITEM: ATOMS id type mol proc q 
1 1 1 0 -0.834795 
2 2 1 0 0.418589 
3 2 1 0 0.416207 
4 1 2 0 -0.837186 
5 2 2 0 0.420436 
6 2 2 0 0.416751 
ITEM: TIMESTEP
9
ITEM: NUMBER OF ATOMS
6
ITEM: BOX BOUNDS pp pp pp
0.0000000000000000e+00 3.0000000000000000e+00
0.0000000000000000e+00 3.0000000000000000e+00
0.0000000000000000e+00 3.0000000000000000e+00
ITEM: ATOMS id type mol proc q 
1 1 1 0 -0.827674 
2 2 1 0 0.412699 
3 2 1 0 0.414974 
4 1 2 0 -0.840493 
5 2 2 0 0.420766 
6 2 2 0 0.419727 
ITEM: TIMESTEP
10
ITEM: NUMBER OF ATOMS
6
ITEM: BOX BOUNDS pp pp pp
0.0000000000000000e+00 3.0000000000000000e+00
0.0000000000000000e+00 3.0000000000000000e+00
0.0000000000000000e+00 3.0000000000000000e+00
ITEM: ATOMS id type mol proc q 
1 1 1 0 -0.838009 
2 2 1 0 0.417307 
3 2 1 0 0.420701 
4 1 2 0 -0.843004 
5 2 2 0 0.419867 
6 2 2 0 0.423137 
